d 1.0778 3 4 tcp 190 ------- 3 2.0 4.2 13 73
d 1.093 3 4 tcp 190 ------- 3 2.0 4.2 14 74
d 1.1386 3 4 tcp 190 ------- 1 0.0 4.0 22 83
d 1.1538 3 4 tcp 190 ------- 1 0.0 4.0 23 85
d 1.169 3 4 tcp 190 ------- 1 0.0 4.0 24 86
d 1.1842 3 4 tcp 190 ------- 1 0.0 4.0 25 88
d 1.1994 3 4 tcp 190 ------- 1 0.0 4.0 26 89
d 1.2146 3 4 tcp 190 ------- 1 0.0 4.0 27 94
d 1.2298 3 4 tcp 190 ------- 1 0.0 4.0 28 95
d 1.245 3 4 tcp 190 ------- 1 0.0 4.0 29 100
d 1.2602 3 4 tcp 190 ------- 1 0.0 4.0 30 101
d 1.2754 3 4 tcp 190 ------- 2 1.0 4.1 24 110
d 1.2906 3 4 tcp 190 ------- 2 1.0 4.1 25 112
d 1.3058 3 4 tcp 190 ------- 2 1.0 4.1 26 113
d 1.321 3 4 tcp 190 ------- 2 1.0 4.1 27 115
d 1.3362 3 4 tcp 190 ------- 3 2.0 4.2 19 127
d 1.3362 3 4 tcp 190 ------- 2 1.0 4.1 28 116
d 1.3514 3 4 tcp 190 ------- 3 2.0 4.2 20 128
d 1.3514 3 4 tcp 190 ------- 2 1.0 4.1 29 121
d 1.3666 3 4 tcp 190 ------- 3 2.0 4.2 21 133
d 1.3666 3 4 tcp 190 ------- 2 1.0 4.1 30 122
d 1.3818 3 4 tcp 190 ------- 3 2.0 4.2 22 134
d 1.397 3 4 tcp 190 ------- 3 2.0 4.2 23 139
d 1.4122 3 4 tcp 190 ------- 3 2.0 4.2 24 140
d 1.4274 3 4 tcp 190 ------- 3 2.0 4.2 25 145
d 1.4426 3 4 tcp 190 ------- 3 2.0 4.2 26 146
d 1.4882 3 4 tcp 190 ------- 1 0.0 4.0 41 155
d 1.625 3 4 tcp 190 ------- 2 1.0 4.1 40 171
d 1.6402 3 4 tcp 190 ------- 2 1.0 4.1 41 173
d 1.6554 3 4 tcp 190 ------- 2 1.0 4.1 42 175
d 2.6818 3 4 tcp 190 ------- 2 1.0 4.1 42 269
d 2.697 3 4 tcp 190 ------- 2 1.0 4.1 43 270
d 2.701 3 4 tcp 190 ------- 1 0.0 4.0 38 283
d 2.7122 3 4 tcp 190 ------- 2 1.0 4.1 44 271
d 2.7274 3 4 tcp 190 ------- 2 1.0 4.1 45 272
d 2.7314 3 4 tcp 190 ------- 1 0.0 4.0 42 288
d 2.7426 3 4 tcp 190 ------- 2 1.0 4.1 46 273
d 2.7466 3 4 tcp 190 ------- 1 0.0 4.0 43 289
d 2.7578 3 4 tcp 190 ------- 2 1.0 4.1 47 274
d 2.7618 3 4 tcp 190 ------- 1 0.0 4.0 44 290
d 2.777 3 4 tcp 190 ------- 1 0.0 4.0 45 291
d 2.7922 3 4 tcp 190 ------- 1 0.0 4.0 46 292
d 2.853 3 4 tcp 190 ------- 1 0.0 4.0 50 296
d 2.8834 3 4 tcp 190 ------- 1 0.0 4.0 52 306
d 4.3242 3 4 tcp 190 ------- 1 0.0 4.0 55 479
d 4.3394 3 4 tcp 190 ------- 1 0.0 4.0 56 484
d 4.3698 3 4 tcp 190 ------- 2 1.0 4.1 56 490
d 4.4002 3 4 tcp 190 ------- 2 1.0 4.1 58 492
d 4.4154 3 4 tcp 190 ------- 2 1.0 4.1 59 494
d 4.4306 3 4 tcp 190 ------- 2 1.0 4.1 60 498
