+ 0.01 0 3 tcp 40 ------- 1 0.0 4.0 0 0
- 0.01 0 3 tcp 40 ------- 1 0.0 4.0 0 0
+ 0.02 1 3 tcp 40 ------- 2 1.0 4.1 0 1
- 0.02 1 3 tcp 40 ------- 2 1.0 4.1 0 1
+ 0.03 2 3 tcp 40 ------- 3 2.0 4.2 0 2
- 0.03 2 3 tcp 40 ------- 3 2.0 4.2 0 2
r 0.0582 0 3 tcp 40 ------- 1 0.0 4.0 0 0
+ 0.0582 3 4 tcp 40 ------- 1 0.0 4.0 0 0
- 0.0582 3 4 tcp 40 ------- 1 0.0 4.0 0 0
r 0.0682 1 3 tcp 40 ------- 2 1.0 4.1 0 1
+ 0.0682 3 4 tcp 40 ------- 2 1.0 4.1 0 1
- 0.0682 3 4 tcp 40 ------- 2 1.0 4.1 0 1
r 0.0782 2 3 tcp 40 ------- 3 2.0 4.2 0 2
+ 0.0782 3 4 tcp 40 ------- 3 2.0 4.2 0 2
- 0.0782 3 4 tcp 40 ------- 3 2.0 4.2 0 2
r 0.1064 3 4 tcp 40 ------- 1 0.0 4.0 0 0
+ 0.1064 4 3 ack 40 ------- 1 4.0 0.0 0 3
- 0.1064 4 3 ack 40 ------- 1 4.0 0.0 0 3
r 0.1164 3 4 tcp 40 ------- 2 1.0 4.1 0 1
+ 0.1164 4 3 ack 40 ------- 2 4.1 1.0 0 4
- 0.1164 4 3 ack 40 ------- 2 4.1 1.0 0 4
r 0.1264 3 4 tcp 40 ------- 3 2.0 4.2 0 2
+ 0.1264 4 3 ack 40 ------- 3 4.2 2.0 0 5
- 0.1264 4 3 ack 40 ------- 3 4.2 2.0 0 5
r 0.1546 4 3 ack 40 ------- 1 4.0 0.0 0 3
+ 0.1546 3 0 ack 40 ------- 1 4.0 0.0 0 3
- 0.1546 3 0 ack 40 ------- 1 4.0 0.0 0 3
r 0.1646 4 3 ack 40 ------- 2 4.1 1.0 0 4
+ 0.1646 3 1 ack 40 ------- 2 4.1 1.0 0 4
- 0.1646 3 1 ack 40 ------- 2 4.1 1.0 0 4
r 0.1746 4 3 ack 40 ------- 3 4.2 2.0 0 5
+ 0.1746 3 2 ack 40 ------- 3 4.2 2.0 0 5
- 0.1746 3 2 ack 40 ------- 3 4.2 2.0 0 5
r 0.2028 3 0 ack 40 ------- 1 4.0 0.0 0 3
+ 0.2028 0 3 tcp 190 ------- 1 0.0 4.0 1 6
- 0.2028 0 3 tcp 190 ------- 1 0.0 4.0 1 6
+ 0.2028 0 3 tcp 190 ------- 1 0.0 4.0 2 7
r 0.2128 3 1 ack 40 ------- 2 4.1 1.0 0 4
+ 0.2128 1 3 tcp 190 ------- 2 1.0 4.1 1 8
- 0.2128 1 3 tcp 190 ------- 2 1.0 4.1 1 8
+ 0.2128 1 3 tcp 190 ------- 2 1.0 4.1 2 9
- 0.218 0 3 tcp 190 ------- 1 0.0 4.0 2 7
r 0.2228 3 2 ack 40 ------- 3 4.2 2.0 0 5
+ 0.2228 2 3 tcp 190 ------- 3 2.0 4.2 1 10
- 0.2228 2 3 tcp 190 ------- 3 2.0 4.2 1 10
+ 0.2228 2 3 tcp 190 ------- 3 2.0 4.2 2 11
- 0.228 1 3 tcp 190 ------- 2 1.0 4.1 2 9
- 0.238 2 3 tcp 190 ------- 3 2.0 4.2 2 11
r 0.263 0 3 tcp 190 ------- 1 0.0 4.0 1 6
+ 0.263 3 4 tcp 190 ------- 1 0.0 4.0 1 6
- 0.263 3 4 tcp 190 ------- 1 0.0 4.0 1 6
r 0.273 1 3 tcp 190 ------- 2 1.0 4.1 1 8
+ 0.273 3 4 tcp 190 ------- 2 1.0 4.1 1 8
r 0.2782 0 3 tcp 190 ------- 1 0.0 4.0 2 7
+ 0.2782 3 4 tcp 190 ------- 1 0.0 4.0 2 7
- 0.2782 3 4 tcp 190 ------- 2 1.0 4.1 1 8
r 0.283 2 3 tcp 190 ------- 3 2.0 4.2 1 10
+ 0.283 3 4 tcp 190 ------- 3 2.0 4.2 1 10
r 0.2882 1 3 tcp 190 ------- 2 1.0 4.1 2 9
+ 0.2882 3 4 tcp 190 ------- 2 1.0 4.1 2 9
- 0.2934 3 4 tcp 190 ------- 1 0.0 4.0 2 7
r 0.2982 2 3 tcp 190 ------- 3 2.0 4.2 2 11
+ 0.2982 3 4 tcp 190 ------- 3 2.0 4.2 2 11
- 0.3086 3 4 tcp 190 ------- 3 2.0 4.2 1 10
r 0.3232 3 4 tcp 190 ------- 1 0.0 4.0 1 6
+ 0.3232 4 3 ack 40 ------- 1 4.0 0.0 1 12
- 0.3232 4 3 ack 40 ------- 1 4.0 0.0 1 12
- 0.3238 3 4 tcp 190 ------- 2 1.0 4.1 2 9
r 0.3384 3 4 tcp 190 ------- 2 1.0 4.1 1 8
+ 0.3384 4 3 ack 40 ------- 2 4.1 1.0 1 13
- 0.3384 4 3 ack 40 ------- 2 4.1 1.0 1 13
- 0.339 3 4 tcp 190 ------- 3 2.0 4.2 2 11
r 0.3536 3 4 tcp 190 ------- 1 0.0 4.0 2 7
+ 0.3536 4 3 ack 40 ------- 1 4.0 0.0 2 14
- 0.3536 4 3 ack 40 ------- 1 4.0 0.0 2 14
r 0.3688 3 4 tcp 190 ------- 3 2.0 4.2 1 10
+ 0.3688 4 3 ack 40 ------- 3 4.2 2.0 1 15
- 0.3688 4 3 ack 40 ------- 3 4.2 2.0 1 15
r 0.3714 4 3 ack 40 ------- 1 4.0 0.0 1 12
+ 0.3714 3 0 ack 40 ------- 1 4.0 0.0 1 12
- 0.3714 3 0 ack 40 ------- 1 4.0 0.0 1 12
r 0.384 3 4 tcp 190 ------- 2 1.0 4.1 2 9
+ 0.384 4 3 ack 40 ------- 2 4.1 1.0 2 16
- 0.384 4 3 ack 40 ------- 2 4.1 1.0 2 16
r 0.3866 4 3 ack 40 ------- 2 4.1 1.0 1 13
+ 0.3866 3 1 ack 40 ------- 2 4.1 1.0 1 13
- 0.3866 3 1 ack 40 ------- 2 4.1 1.0 1 13
r 0.3992 3 4 tcp 190 ------- 3 2.0 4.2 2 11
+ 0.3992 4 3 ack 40 ------- 3 4.2 2.0 2 17
- 0.3992 4 3 ack 40 ------- 3 4.2 2.0 2 17
r 0.4018 4 3 ack 40 ------- 1 4.0 0.0 2 14
+ 0.4018 3 0 ack 40 ------- 1 4.0 0.0 2 14
- 0.4018 3 0 ack 40 ------- 1 4.0 0.0 2 14
r 0.417 4 3 ack 40 ------- 3 4.2 2.0 1 15
+ 0.417 3 2 ack 40 ------- 3 4.2 2.0 1 15
- 0.417 3 2 ack 40 ------- 3 4.2 2.0 1 15
r 0.4196 3 0 ack 40 ------- 1 4.0 0.0 1 12
+ 0.4196 0 3 tcp 190 ------- 1 0.0 4.0 3 18
- 0.4196 0 3 tcp 190 ------- 1 0.0 4.0 3 18
+ 0.4196 0 3 tcp 190 ------- 1 0.0 4.0 4 19
r 0.4322 4 3 ack 40 ------- 2 4.1 1.0 2 16
+ 0.4322 3 1 ack 40 ------- 2 4.1 1.0 2 16
- 0.4322 3 1 ack 40 ------- 2 4.1 1.0 2 16
r 0.4348 3 1 ack 40 ------- 2 4.1 1.0 1 13
+ 0.4348 1 3 tcp 190 ------- 2 1.0 4.1 3 20
- 0.4348 1 3 tcp 190 ------- 2 1.0 4.1 3 20
+ 0.4348 1 3 tcp 190 ------- 2 1.0 4.1 4 21
- 0.4348 0 3 tcp 190 ------- 1 0.0 4.0 4 19
r 0.4474 4 3 ack 40 ------- 3 4.2 2.0 2 17
+ 0.4474 3 2 ack 40 ------- 3 4.2 2.0 2 17
- 0.4474 3 2 ack 40 ------- 3 4.2 2.0 2 17
r 0.45 3 0 ack 40 ------- 1 4.0 0.0 2 14
+ 0.45 0 3 tcp 190 ------- 1 0.0 4.0 5 22
+ 0.45 0 3 tcp 190 ------- 1 0.0 4.0 6 23
- 0.45 1 3 tcp 190 ------- 2 1.0 4.1 4 21
- 0.45 0 3 tcp 190 ------- 1 0.0 4.0 5 22
r 0.4652 3 2 ack 40 ------- 3 4.2 2.0 1 15
+ 0.4652 2 3 tcp 190 ------- 3 2.0 4.2 3 24
- 0.4652 2 3 tcp 190 ------- 3 2.0 4.2 3 24
+ 0.4652 2 3 tcp 190 ------- 3 2.0 4.2 4 25
- 0.4652 0 3 tcp 190 ------- 1 0.0 4.0 6 23
r 0.4798 0 3 tcp 190 ------- 1 0.0 4.0 3 18
+ 0.4798 3 4 tcp 190 ------- 1 0.0 4.0 3 18
- 0.4798 3 4 tcp 190 ------- 1 0.0 4.0 3 18
r 0.4804 3 1 ack 40 ------- 2 4.1 1.0 2 16
+ 0.4804 1 3 tcp 190 ------- 2 1.0 4.1 5 26
- 0.4804 1 3 tcp 190 ------- 2 1.0 4.1 5 26
+ 0.4804 1 3 tcp 190 ------- 2 1.0 4.1 6 27
- 0.4804 2 3 tcp 190 ------- 3 2.0 4.2 4 25
r 0.495 1 3 tcp 190 ------- 2 1.0 4.1 3 20
+ 0.495 3 4 tcp 190 ------- 2 1.0 4.1 3 20
r 0.495 0 3 tcp 190 ------- 1 0.0 4.0 4 19
+ 0.495 3 4 tcp 190 ------- 1 0.0 4.0 4 19
- 0.495 3 4 tcp 190 ------- 2 1.0 4.1 3 20
r 0.4956 3 2 ack 40 ------- 3 4.2 2.0 2 17
+ 0.4956 2 3 tcp 190 ------- 3 2.0 4.2 5 28
+ 0.4956 2 3 tcp 190 ------- 3 2.0 4.2 6 29
- 0.4956 1 3 tcp 190 ------- 2 1.0 4.1 6 27
- 0.4956 2 3 tcp 190 ------- 3 2.0 4.2 5 28
r 0.5102 1 3 tcp 190 ------- 2 1.0 4.1 4 21
+ 0.5102 3 4 tcp 190 ------- 2 1.0 4.1 4 21
r 0.5102 0 3 tcp 190 ------- 1 0.0 4.0 5 22
+ 0.5102 3 4 tcp 190 ------- 1 0.0 4.0 5 22
- 0.5102 3 4 tcp 190 ------- 1 0.0 4.0 4 19
- 0.5108 2 3 tcp 190 ------- 3 2.0 4.2 6 29
r 0.5254 2 3 tcp 190 ------- 3 2.0 4.2 3 24
+ 0.5254 3 4 tcp 190 ------- 3 2.0 4.2 3 24
r 0.5254 0 3 tcp 190 ------- 1 0.0 4.0 6 23
+ 0.5254 3 4 tcp 190 ------- 1 0.0 4.0 6 23
- 0.5254 3 4 tcp 190 ------- 2 1.0 4.1 4 21
r 0.54 3 4 tcp 190 ------- 1 0.0 4.0 3 18
+ 0.54 4 3 ack 40 ------- 1 4.0 0.0 3 30
- 0.54 4 3 ack 40 ------- 1 4.0 0.0 3 30
r 0.5406 1 3 tcp 190 ------- 2 1.0 4.1 5 26
+ 0.5406 3 4 tcp 190 ------- 2 1.0 4.1 5 26
r 0.5406 2 3 tcp 190 ------- 3 2.0 4.2 4 25
+ 0.5406 3 4 tcp 190 ------- 3 2.0 4.2 4 25
- 0.5406 3 4 tcp 190 ------- 1 0.0 4.0 5 22
r 0.5552 3 4 tcp 190 ------- 2 1.0 4.1 3 20
+ 0.5552 4 3 ack 40 ------- 2 4.1 1.0 3 31
- 0.5552 4 3 ack 40 ------- 2 4.1 1.0 3 31
r 0.5558 1 3 tcp 190 ------- 2 1.0 4.1 6 27
+ 0.5558 3 4 tcp 190 ------- 2 1.0 4.1 6 27
r 0.5558 2 3 tcp 190 ------- 3 2.0 4.2 5 28
+ 0.5558 3 4 tcp 190 ------- 3 2.0 4.2 5 28
- 0.5558 3 4 tcp 190 ------- 3 2.0 4.2 3 24
r 0.5704 3 4 tcp 190 ------- 1 0.0 4.0 4 19
+ 0.5704 4 3 ack 40 ------- 1 4.0 0.0 4 32
- 0.5704 4 3 ack 40 ------- 1 4.0 0.0 4 32
r 0.571 2 3 tcp 190 ------- 3 2.0 4.2 6 29
+ 0.571 3 4 tcp 190 ------- 3 2.0 4.2 6 29
- 0.571 3 4 tcp 190 ------- 1 0.0 4.0 6 23
r 0.5856 3 4 tcp 190 ------- 2 1.0 4.1 4 21
+ 0.5856 4 3 ack 40 ------- 2 4.1 1.0 4 33
- 0.5856 4 3 ack 40 ------- 2 4.1 1.0 4 33
- 0.5862 3 4 tcp 190 ------- 2 1.0 4.1 5 26
r 0.5882 4 3 ack 40 ------- 1 4.0 0.0 3 30
+ 0.5882 3 0 ack 40 ------- 1 4.0 0.0 3 30
- 0.5882 3 0 ack 40 ------- 1 4.0 0.0 3 30
r 0.6008 3 4 tcp 190 ------- 1 0.0 4.0 5 22
+ 0.6008 4 3 ack 40 ------- 1 4.0 0.0 5 34
- 0.6008 4 3 ack 40 ------- 1 4.0 0.0 5 34
- 0.6014 3 4 tcp 190 ------- 3 2.0 4.2 4 25
r 0.6034 4 3 ack 40 ------- 2 4.1 1.0 3 31
+ 0.6034 3 1 ack 40 ------- 2 4.1 1.0 3 31
- 0.6034 3 1 ack 40 ------- 2 4.1 1.0 3 31
r 0.616 3 4 tcp 190 ------- 3 2.0 4.2 3 24
+ 0.616 4 3 ack 40 ------- 3 4.2 2.0 3 35
- 0.616 4 3 ack 40 ------- 3 4.2 2.0 3 35
- 0.6166 3 4 tcp 190 ------- 2 1.0 4.1 6 27
r 0.6186 4 3 ack 40 ------- 1 4.0 0.0 4 32
+ 0.6186 3 0 ack 40 ------- 1 4.0 0.0 4 32
- 0.6186 3 0 ack 40 ------- 1 4.0 0.0 4 32
r 0.6312 3 4 tcp 190 ------- 1 0.0 4.0 6 23
+ 0.6312 4 3 ack 40 ------- 1 4.0 0.0 6 36
- 0.6312 4 3 ack 40 ------- 1 4.0 0.0 6 36
- 0.6318 3 4 tcp 190 ------- 3 2.0 4.2 5 28
r 0.6338 4 3 ack 40 ------- 2 4.1 1.0 4 33
+ 0.6338 3 1 ack 40 ------- 2 4.1 1.0 4 33
- 0.6338 3 1 ack 40 ------- 2 4.1 1.0 4 33
r 0.6364 3 0 ack 40 ------- 1 4.0 0.0 3 30
+ 0.6364 0 3 tcp 190 ------- 1 0.0 4.0 7 37
- 0.6364 0 3 tcp 190 ------- 1 0.0 4.0 7 37
+ 0.6364 0 3 tcp 190 ------- 1 0.0 4.0 8 38
r 0.6464 3 4 tcp 190 ------- 2 1.0 4.1 5 26
+ 0.6464 4 3 ack 40 ------- 2 4.1 1.0 5 39
- 0.6464 4 3 ack 40 ------- 2 4.1 1.0 5 39
- 0.647 3 4 tcp 190 ------- 3 2.0 4.2 6 29
r 0.649 4 3 ack 40 ------- 1 4.0 0.0 5 34
+ 0.649 3 0 ack 40 ------- 1 4.0 0.0 5 34
- 0.649 3 0 ack 40 ------- 1 4.0 0.0 5 34
r 0.6516 3 1 ack 40 ------- 2 4.1 1.0 3 31
+ 0.6516 1 3 tcp 190 ------- 2 1.0 4.1 7 40
- 0.6516 1 3 tcp 190 ------- 2 1.0 4.1 7 40
+ 0.6516 1 3 tcp 190 ------- 2 1.0 4.1 8 41
- 0.6516 0 3 tcp 190 ------- 1 0.0 4.0 8 38
r 0.6616 3 4 tcp 190 ------- 3 2.0 4.2 4 25
+ 0.6616 4 3 ack 40 ------- 3 4.2 2.0 4 42
- 0.6616 4 3 ack 40 ------- 3 4.2 2.0 4 42
r 0.6642 4 3 ack 40 ------- 3 4.2 2.0 3 35
+ 0.6642 3 2 ack 40 ------- 3 4.2 2.0 3 35
- 0.6642 3 2 ack 40 ------- 3 4.2 2.0 3 35
- 0.6668 1 3 tcp 190 ------- 2 1.0 4.1 8 41
r 0.6668 3 0 ack 40 ------- 1 4.0 0.0 4 32
+ 0.6668 0 3 tcp 190 ------- 1 0.0 4.0 9 43
- 0.6668 0 3 tcp 190 ------- 1 0.0 4.0 9 43
+ 0.6668 0 3 tcp 190 ------- 1 0.0 4.0 10 44
r 0.6768 3 4 tcp 190 ------- 2 1.0 4.1 6 27
+ 0.6768 4 3 ack 40 ------- 2 4.1 1.0 6 45
- 0.6768 4 3 ack 40 ------- 2 4.1 1.0 6 45
r 0.6794 4 3 ack 40 ------- 1 4.0 0.0 6 36
+ 0.6794 3 0 ack 40 ------- 1 4.0 0.0 6 36
- 0.6794 3 0 ack 40 ------- 1 4.0 0.0 6 36
r 0.682 3 1 ack 40 ------- 2 4.1 1.0 4 33
+ 0.682 1 3 tcp 190 ------- 2 1.0 4.1 9 46
- 0.682 1 3 tcp 190 ------- 2 1.0 4.1 9 46
+ 0.682 1 3 tcp 190 ------- 2 1.0 4.1 10 47
- 0.682 0 3 tcp 190 ------- 1 0.0 4.0 10 44
r 0.692 3 4 tcp 190 ------- 3 2.0 4.2 5 28
+ 0.692 4 3 ack 40 ------- 3 4.2 2.0 5 48
- 0.692 4 3 ack 40 ------- 3 4.2 2.0 5 48
r 0.6946 4 3 ack 40 ------- 2 4.1 1.0 5 39
+ 0.6946 3 1 ack 40 ------- 2 4.1 1.0 5 39
- 0.6946 3 1 ack 40 ------- 2 4.1 1.0 5 39
r 0.6966 0 3 tcp 190 ------- 1 0.0 4.0 7 37
+ 0.6966 3 4 tcp 190 ------- 1 0.0 4.0 7 37
- 0.6966 3 4 tcp 190 ------- 1 0.0 4.0 7 37
r 0.6972 3 0 ack 40 ------- 1 4.0 0.0 5 34
+ 0.6972 0 3 tcp 190 ------- 1 0.0 4.0 11 49
+ 0.6972 0 3 tcp 190 ------- 1 0.0 4.0 12 50
- 0.6972 1 3 tcp 190 ------- 2 1.0 4.1 10 47
- 0.6972 0 3 tcp 190 ------- 1 0.0 4.0 11 49
r 0.7072 3 4 tcp 190 ------- 3 2.0 4.2 6 29
+ 0.7072 4 3 ack 40 ------- 3 4.2 2.0 6 51
- 0.7072 4 3 ack 40 ------- 3 4.2 2.0 6 51
r 0.7098 4 3 ack 40 ------- 3 4.2 2.0 4 42
+ 0.7098 3 2 ack 40 ------- 3 4.2 2.0 4 42
- 0.7098 3 2 ack 40 ------- 3 4.2 2.0 4 42
r 0.7118 1 3 tcp 190 ------- 2 1.0 4.1 7 40
+ 0.7118 3 4 tcp 190 ------- 2 1.0 4.1 7 40
r 0.7118 0 3 tcp 190 ------- 1 0.0 4.0 8 38
+ 0.7118 3 4 tcp 190 ------- 1 0.0 4.0 8 38
- 0.7118 3 4 tcp 190 ------- 2 1.0 4.1 7 40
r 0.7124 3 2 ack 40 ------- 3 4.2 2.0 3 35
+ 0.7124 2 3 tcp 190 ------- 3 2.0 4.2 7 52
- 0.7124 2 3 tcp 190 ------- 3 2.0 4.2 7 52
+ 0.7124 2 3 tcp 190 ------- 3 2.0 4.2 8 53
- 0.7124 0 3 tcp 190 ------- 1 0.0 4.0 12 50
r 0.725 4 3 ack 40 ------- 2 4.1 1.0 6 45
+ 0.725 3 1 ack 40 ------- 2 4.1 1.0 6 45
- 0.725 3 1 ack 40 ------- 2 4.1 1.0 6 45
r 0.727 1 3 tcp 190 ------- 2 1.0 4.1 8 41
+ 0.727 3 4 tcp 190 ------- 2 1.0 4.1 8 41
- 0.727 3 4 tcp 190 ------- 1 0.0 4.0 8 38
r 0.727 0 3 tcp 190 ------- 1 0.0 4.0 9 43
+ 0.727 3 4 tcp 190 ------- 1 0.0 4.0 9 43
r 0.7276 3 0 ack 40 ------- 1 4.0 0.0 6 36
+ 0.7276 0 3 tcp 190 ------- 1 0.0 4.0 13 54
+ 0.7276 0 3 tcp 190 ------- 1 0.0 4.0 14 55
- 0.7276 2 3 tcp 190 ------- 3 2.0 4.2 8 53
- 0.7276 0 3 tcp 190 ------- 1 0.0 4.0 13 54
r 0.7402 4 3 ack 40 ------- 3 4.2 2.0 5 48
+ 0.7402 3 2 ack 40 ------- 3 4.2 2.0 5 48
- 0.7402 3 2 ack 40 ------- 3 4.2 2.0 5 48
- 0.7422 3 4 tcp 190 ------- 2 1.0 4.1 8 41
r 0.7422 1 3 tcp 190 ------- 2 1.0 4.1 9 46
+ 0.7422 3 4 tcp 190 ------- 2 1.0 4.1 9 46
r 0.7422 0 3 tcp 190 ------- 1 0.0 4.0 10 44
+ 0.7422 3 4 tcp 190 ------- 1 0.0 4.0 10 44
r 0.7428 3 1 ack 40 ------- 2 4.1 1.0 5 39
+ 0.7428 1 3 tcp 190 ------- 2 1.0 4.1 11 56
- 0.7428 1 3 tcp 190 ------- 2 1.0 4.1 11 56
+ 0.7428 1 3 tcp 190 ------- 2 1.0 4.1 12 57
- 0.7428 0 3 tcp 190 ------- 1 0.0 4.0 14 55
r 0.7554 4 3 ack 40 ------- 3 4.2 2.0 6 51
+ 0.7554 3 2 ack 40 ------- 3 4.2 2.0 6 51
- 0.7554 3 2 ack 40 ------- 3 4.2 2.0 6 51
r 0.7568 3 4 tcp 190 ------- 1 0.0 4.0 7 37
+ 0.7568 4 3 ack 40 ------- 1 4.0 0.0 7 58
- 0.7568 4 3 ack 40 ------- 1 4.0 0.0 7 58
- 0.7574 3 4 tcp 190 ------- 1 0.0 4.0 9 43
r 0.7574 1 3 tcp 190 ------- 2 1.0 4.1 10 47
+ 0.7574 3 4 tcp 190 ------- 2 1.0 4.1 10 47
r 0.7574 0 3 tcp 190 ------- 1 0.0 4.0 11 49
+ 0.7574 3 4 tcp 190 ------- 1 0.0 4.0 11 49
r 0.758 3 2 ack 40 ------- 3 4.2 2.0 4 42
+ 0.758 2 3 tcp 190 ------- 3 2.0 4.2 9 59
- 0.758 2 3 tcp 190 ------- 3 2.0 4.2 9 59
+ 0.758 2 3 tcp 190 ------- 3 2.0 4.2 10 60
- 0.758 1 3 tcp 190 ------- 2 1.0 4.1 12 57
r 0.772 3 4 tcp 190 ------- 2 1.0 4.1 7 40
+ 0.772 4 3 ack 40 ------- 2 4.1 1.0 7 61
- 0.772 4 3 ack 40 ------- 2 4.1 1.0 7 61
- 0.7726 3 4 tcp 190 ------- 2 1.0 4.1 9 46
r 0.7726 2 3 tcp 190 ------- 3 2.0 4.2 7 52
+ 0.7726 3 4 tcp 190 ------- 3 2.0 4.2 7 52
r 0.7726 0 3 tcp 190 ------- 1 0.0 4.0 12 50
+ 0.7726 3 4 tcp 190 ------- 1 0.0 4.0 12 50
r 0.7732 3 1 ack 40 ------- 2 4.1 1.0 6 45
+ 0.7732 1 3 tcp 190 ------- 2 1.0 4.1 13 62
+ 0.7732 1 3 tcp 190 ------- 2 1.0 4.1 14 63
- 0.7732 2 3 tcp 190 ------- 3 2.0 4.2 10 60
- 0.7732 1 3 tcp 190 ------- 2 1.0 4.1 13 62
r 0.7872 3 4 tcp 190 ------- 1 0.0 4.0 8 38
+ 0.7872 4 3 ack 40 ------- 1 4.0 0.0 8 64
- 0.7872 4 3 ack 40 ------- 1 4.0 0.0 8 64
- 0.7878 3 4 tcp 190 ------- 1 0.0 4.0 10 44
r 0.7878 2 3 tcp 190 ------- 3 2.0 4.2 8 53
+ 0.7878 3 4 tcp 190 ------- 3 2.0 4.2 8 53
r 0.7878 0 3 tcp 190 ------- 1 0.0 4.0 13 54
+ 0.7878 3 4 tcp 190 ------- 1 0.0 4.0 13 54
r 0.7884 3 2 ack 40 ------- 3 4.2 2.0 5 48
+ 0.7884 2 3 tcp 190 ------- 3 2.0 4.2 11 65
+ 0.7884 2 3 tcp 190 ------- 3 2.0 4.2 12 66
- 0.7884 2 3 tcp 190 ------- 3 2.0 4.2 11 65
- 0.7884 1 3 tcp 190 ------- 2 1.0 4.1 14 63
r 0.8024 3 4 tcp 190 ------- 2 1.0 4.1 8 41
+ 0.8024 4 3 ack 40 ------- 2 4.1 1.0 8 67
- 0.8024 4 3 ack 40 ------- 2 4.1 1.0 8 67
- 0.803 3 4 tcp 190 ------- 2 1.0 4.1 10 47
r 0.803 1 3 tcp 190 ------- 2 1.0 4.1 11 56
+ 0.803 3 4 tcp 190 ------- 2 1.0 4.1 11 56
r 0.803 0 3 tcp 190 ------- 1 0.0 4.0 14 55
+ 0.803 3 4 tcp 190 ------- 1 0.0 4.0 14 55
r 0.8036 3 2 ack 40 ------- 3 4.2 2.0 6 51
+ 0.8036 2 3 tcp 190 ------- 3 2.0 4.2 13 68
+ 0.8036 2 3 tcp 190 ------- 3 2.0 4.2 14 69
- 0.8036 2 3 tcp 190 ------- 3 2.0 4.2 12 66
r 0.805 4 3 ack 40 ------- 1 4.0 0.0 7 58
+ 0.805 3 0 ack 40 ------- 1 4.0 0.0 7 58
- 0.805 3 0 ack 40 ------- 1 4.0 0.0 7 58
r 0.8176 3 4 tcp 190 ------- 1 0.0 4.0 9 43
+ 0.8176 4 3 ack 40 ------- 1 4.0 0.0 9 70
- 0.8176 4 3 ack 40 ------- 1 4.0 0.0 9 70
- 0.8182 3 4 tcp 190 ------- 1 0.0 4.0 11 49
r 0.8182 2 3 tcp 190 ------- 3 2.0 4.2 9 59
+ 0.8182 3 4 tcp 190 ------- 3 2.0 4.2 9 59
r 0.8182 1 3 tcp 190 ------- 2 1.0 4.1 12 57
+ 0.8182 3 4 tcp 190 ------- 2 1.0 4.1 12 57
- 0.8188 2 3 tcp 190 ------- 3 2.0 4.2 13 68
r 0.8202 4 3 ack 40 ------- 2 4.1 1.0 7 61
+ 0.8202 3 1 ack 40 ------- 2 4.1 1.0 7 61
- 0.8202 3 1 ack 40 ------- 2 4.1 1.0 7 61
r 0.8328 3 4 tcp 190 ------- 2 1.0 4.1 9 46
+ 0.8328 4 3 ack 40 ------- 2 4.1 1.0 9 71
- 0.8328 4 3 ack 40 ------- 2 4.1 1.0 9 71
- 0.8334 3 4 tcp 190 ------- 3 2.0 4.2 7 52
r 0.8334 2 3 tcp 190 ------- 3 2.0 4.2 10 60
+ 0.8334 3 4 tcp 190 ------- 3 2.0 4.2 10 60
r 0.8334 1 3 tcp 190 ------- 2 1.0 4.1 13 62
+ 0.8334 3 4 tcp 190 ------- 2 1.0 4.1 13 62
- 0.834 2 3 tcp 190 ------- 3 2.0 4.2 14 69
r 0.8354 4 3 ack 40 ------- 1 4.0 0.0 8 64
+ 0.8354 3 0 ack 40 ------- 1 4.0 0.0 8 64
- 0.8354 3 0 ack 40 ------- 1 4.0 0.0 8 64
r 0.848 3 4 tcp 190 ------- 1 0.0 4.0 10 44
+ 0.848 4 3 ack 40 ------- 1 4.0 0.0 10 72
- 0.848 4 3 ack 40 ------- 1 4.0 0.0 10 72
- 0.8486 3 4 tcp 190 ------- 1 0.0 4.0 12 50
r 0.8486 2 3 tcp 190 ------- 3 2.0 4.2 11 65
+ 0.8486 3 4 tcp 190 ------- 3 2.0 4.2 11 65
r 0.8486 1 3 tcp 190 ------- 2 1.0 4.1 14 63
+ 0.8486 3 4 tcp 190 ------- 2 1.0 4.1 14 63
r 0.8506 4 3 ack 40 ------- 2 4.1 1.0 8 67
+ 0.8506 3 1 ack 40 ------- 2 4.1 1.0 8 67
- 0.8506 3 1 ack 40 ------- 2 4.1 1.0 8 67
r 0.8532 3 0 ack 40 ------- 1 4.0 0.0 7 58
+ 0.8532 0 3 tcp 190 ------- 1 0.0 4.0 15 73
- 0.8532 0 3 tcp 190 ------- 1 0.0 4.0 15 73
+ 0.8532 0 3 tcp 190 ------- 1 0.0 4.0 16 74
r 0.8632 3 4 tcp 190 ------- 2 1.0 4.1 10 47
+ 0.8632 4 3 ack 40 ------- 2 4.1 1.0 10 75
- 0.8632 4 3 ack 40 ------- 2 4.1 1.0 10 75
- 0.8638 3 4 tcp 190 ------- 3 2.0 4.2 8 53
r 0.8638 2 3 tcp 190 ------- 3 2.0 4.2 12 66
+ 0.8638 3 4 tcp 190 ------- 3 2.0 4.2 12 66
r 0.8658 4 3 ack 40 ------- 1 4.0 0.0 9 70
+ 0.8658 3 0 ack 40 ------- 1 4.0 0.0 9 70
- 0.8658 3 0 ack 40 ------- 1 4.0 0.0 9 70
r 0.8684 3 1 ack 40 ------- 2 4.1 1.0 7 61
+ 0.8684 1 3 tcp 190 ------- 2 1.0 4.1 15 76
- 0.8684 1 3 tcp 190 ------- 2 1.0 4.1 15 76
+ 0.8684 1 3 tcp 190 ------- 2 1.0 4.1 16 77
- 0.8684 0 3 tcp 190 ------- 1 0.0 4.0 16 74
r 0.8784 3 4 tcp 190 ------- 1 0.0 4.0 11 49
+ 0.8784 4 3 ack 40 ------- 1 4.0 0.0 11 78
- 0.8784 4 3 ack 40 ------- 1 4.0 0.0 11 78
- 0.879 3 4 tcp 190 ------- 1 0.0 4.0 13 54
r 0.879 2 3 tcp 190 ------- 3 2.0 4.2 13 68
+ 0.879 3 4 tcp 190 ------- 3 2.0 4.2 13 68
r 0.881 4 3 ack 40 ------- 2 4.1 1.0 9 71
+ 0.881 3 1 ack 40 ------- 2 4.1 1.0 9 71
- 0.881 3 1 ack 40 ------- 2 4.1 1.0 9 71
r 0.8836 3 0 ack 40 ------- 1 4.0 0.0 8 64
+ 0.8836 0 3 tcp 190 ------- 1 0.0 4.0 17 79
+ 0.8836 0 3 tcp 190 ------- 1 0.0 4.0 18 80
- 0.8836 1 3 tcp 190 ------- 2 1.0 4.1 16 77
- 0.8836 0 3 tcp 190 ------- 1 0.0 4.0 17 79
r 0.8936 3 4 tcp 190 ------- 3 2.0 4.2 7 52
+ 0.8936 4 3 ack 40 ------- 3 4.2 2.0 7 81
- 0.8936 4 3 ack 40 ------- 3 4.2 2.0 7 81
- 0.8942 3 4 tcp 190 ------- 2 1.0 4.1 11 56
r 0.8942 2 3 tcp 190 ------- 3 2.0 4.2 14 69
+ 0.8942 3 4 tcp 190 ------- 3 2.0 4.2 14 69
r 0.8962 4 3 ack 40 ------- 1 4.0 0.0 10 72
+ 0.8962 3 0 ack 40 ------- 1 4.0 0.0 10 72
- 0.8962 3 0 ack 40 ------- 1 4.0 0.0 10 72
r 0.8988 3 1 ack 40 ------- 2 4.1 1.0 8 67
+ 0.8988 1 3 tcp 190 ------- 2 1.0 4.1 17 82
+ 0.8988 1 3 tcp 190 ------- 2 1.0 4.1 18 83
- 0.8988 1 3 tcp 190 ------- 2 1.0 4.1 17 82
- 0.8988 0 3 tcp 190 ------- 1 0.0 4.0 18 80
r 0.9088 3 4 tcp 190 ------- 1 0.0 4.0 12 50
+ 0.9088 4 3 ack 40 ------- 1 4.0 0.0 12 84
- 0.9088 4 3 ack 40 ------- 1 4.0 0.0 12 84
- 0.9094 3 4 tcp 190 ------- 1 0.0 4.0 14 55
r 0.9114 4 3 ack 40 ------- 2 4.1 1.0 10 75
+ 0.9114 3 1 ack 40 ------- 2 4.1 1.0 10 75
- 0.9114 3 1 ack 40 ------- 2 4.1 1.0 10 75
r 0.9134 0 3 tcp 190 ------- 1 0.0 4.0 15 73
+ 0.9134 3 4 tcp 190 ------- 1 0.0 4.0 15 73
r 0.914 3 0 ack 40 ------- 1 4.0 0.0 9 70
+ 0.914 0 3 tcp 190 ------- 1 0.0 4.0 19 85
+ 0.914 0 3 tcp 190 ------- 1 0.0 4.0 20 86
- 0.914 1 3 tcp 190 ------- 2 1.0 4.1 18 83
- 0.914 0 3 tcp 190 ------- 1 0.0 4.0 19 85
r 0.924 3 4 tcp 190 ------- 3 2.0 4.2 8 53
+ 0.924 4 3 ack 40 ------- 3 4.2 2.0 8 87
- 0.924 4 3 ack 40 ------- 3 4.2 2.0 8 87
- 0.9246 3 4 tcp 190 ------- 3 2.0 4.2 9 59
r 0.9266 4 3 ack 40 ------- 1 4.0 0.0 11 78
+ 0.9266 3 0 ack 40 ------- 1 4.0 0.0 11 78
- 0.9266 3 0 ack 40 ------- 1 4.0 0.0 11 78
r 0.9286 1 3 tcp 190 ------- 2 1.0 4.1 15 76
+ 0.9286 3 4 tcp 190 ------- 2 1.0 4.1 15 76
r 0.9286 0 3 tcp 190 ------- 1 0.0 4.0 16 74
+ 0.9286 3 4 tcp 190 ------- 1 0.0 4.0 16 74
r 0.9292 3 1 ack 40 ------- 2 4.1 1.0 9 71
+ 0.9292 1 3 tcp 190 ------- 2 1.0 4.1 19 88
+ 0.9292 1 3 tcp 190 ------- 2 1.0 4.1 20 89
- 0.9292 1 3 tcp 190 ------- 2 1.0 4.1 19 88
- 0.9292 0 3 tcp 190 ------- 1 0.0 4.0 20 86
r 0.9392 3 4 tcp 190 ------- 1 0.0 4.0 13 54
+ 0.9392 4 3 ack 40 ------- 1 4.0 0.0 13 90
- 0.9392 4 3 ack 40 ------- 1 4.0 0.0 13 90
- 0.9398 3 4 tcp 190 ------- 2 1.0 4.1 12 57
r 0.9418 4 3 ack 40 ------- 3 4.2 2.0 7 81
+ 0.9418 3 2 ack 40 ------- 3 4.2 2.0 7 81
- 0.9418 3 2 ack 40 ------- 3 4.2 2.0 7 81
r 0.9438 1 3 tcp 190 ------- 2 1.0 4.1 16 77
+ 0.9438 3 4 tcp 190 ------- 2 1.0 4.1 16 77
r 0.9438 0 3 tcp 190 ------- 1 0.0 4.0 17 79
+ 0.9438 3 4 tcp 190 ------- 1 0.0 4.0 17 79
r 0.9444 3 0 ack 40 ------- 1 4.0 0.0 10 72
+ 0.9444 0 3 tcp 190 ------- 1 0.0 4.0 21 91
+ 0.9444 0 3 tcp 190 ------- 1 0.0 4.0 22 92
- 0.9444 1 3 tcp 190 ------- 2 1.0 4.1 20 89
- 0.9444 0 3 tcp 190 ------- 1 0.0 4.0 21 91
r 0.9544 3 4 tcp 190 ------- 2 1.0 4.1 11 56
+ 0.9544 4 3 ack 40 ------- 2 4.1 1.0 11 93
- 0.9544 4 3 ack 40 ------- 2 4.1 1.0 11 93
- 0.955 3 4 tcp 190 ------- 3 2.0 4.2 10 60
r 0.957 4 3 ack 40 ------- 1 4.0 0.0 12 84
+ 0.957 3 0 ack 40 ------- 1 4.0 0.0 12 84
- 0.957 3 0 ack 40 ------- 1 4.0 0.0 12 84
r 0.959 1 3 tcp 190 ------- 2 1.0 4.1 17 82
+ 0.959 3 4 tcp 190 ------- 2 1.0 4.1 17 82
r 0.959 0 3 tcp 190 ------- 1 0.0 4.0 18 80
+ 0.959 3 4 tcp 190 ------- 1 0.0 4.0 18 80
r 0.9596 3 1 ack 40 ------- 2 4.1 1.0 10 75
+ 0.9596 1 3 tcp 190 ------- 2 1.0 4.1 21 94
+ 0.9596 1 3 tcp 190 ------- 2 1.0 4.1 22 95
- 0.9596 1 3 tcp 190 ------- 2 1.0 4.1 21 94
- 0.9596 0 3 tcp 190 ------- 1 0.0 4.0 22 92
r 0.9696 3 4 tcp 190 ------- 1 0.0 4.0 14 55
+ 0.9696 4 3 ack 40 ------- 1 4.0 0.0 14 96
- 0.9696 4 3 ack 40 ------- 1 4.0 0.0 14 96
- 0.9702 3 4 tcp 190 ------- 2 1.0 4.1 13 62
r 0.9722 4 3 ack 40 ------- 3 4.2 2.0 8 87
+ 0.9722 3 2 ack 40 ------- 3 4.2 2.0 8 87
- 0.9722 3 2 ack 40 ------- 3 4.2 2.0 8 87
r 0.9742 1 3 tcp 190 ------- 2 1.0 4.1 18 83
+ 0.9742 3 4 tcp 190 ------- 2 1.0 4.1 18 83
r 0.9742 0 3 tcp 190 ------- 1 0.0 4.0 19 85
+ 0.9742 3 4 tcp 190 ------- 1 0.0 4.0 19 85
r 0.9748 3 0 ack 40 ------- 1 4.0 0.0 11 78
+ 0.9748 0 3 tcp 190 ------- 1 0.0 4.0 23 97
+ 0.9748 0 3 tcp 190 ------- 1 0.0 4.0 24 98
- 0.9748 1 3 tcp 190 ------- 2 1.0 4.1 22 95
- 0.9748 0 3 tcp 190 ------- 1 0.0 4.0 23 97
r 0.9848 3 4 tcp 190 ------- 3 2.0 4.2 9 59
+ 0.9848 4 3 ack 40 ------- 3 4.2 2.0 9 99
- 0.9848 4 3 ack 40 ------- 3 4.2 2.0 9 99
- 0.9854 3 4 tcp 190 ------- 3 2.0 4.2 11 65
r 0.9874 4 3 ack 40 ------- 1 4.0 0.0 13 90
+ 0.9874 3 0 ack 40 ------- 1 4.0 0.0 13 90
- 0.9874 3 0 ack 40 ------- 1 4.0 0.0 13 90
r 0.9894 1 3 tcp 190 ------- 2 1.0 4.1 19 88
+ 0.9894 3 4 tcp 190 ------- 2 1.0 4.1 19 88
r 0.9894 0 3 tcp 190 ------- 1 0.0 4.0 20 86
+ 0.9894 3 4 tcp 190 ------- 1 0.0 4.0 20 86
r 0.99 3 2 ack 40 ------- 3 4.2 2.0 7 81
+ 0.99 2 3 tcp 190 ------- 3 2.0 4.2 15 100
- 0.99 2 3 tcp 190 ------- 3 2.0 4.2 15 100
+ 0.99 2 3 tcp 190 ------- 3 2.0 4.2 16 101
- 0.99 0 3 tcp 190 ------- 1 0.0 4.0 24 98
r 1 3 4 tcp 190 ------- 2 1.0 4.1 12 57
+ 1 4 3 ack 40 ------- 2 4.1 1.0 12 102
- 1 4 3 ack 40 ------- 2 4.1 1.0 12 102
- 1.0006 3 4 tcp 190 ------- 2 1.0 4.1 14 63
r 1.0026 4 3 ack 40 ------- 2 4.1 1.0 11 93
+ 1.0026 3 1 ack 40 ------- 2 4.1 1.0 11 93
- 1.0026 3 1 ack 40 ------- 2 4.1 1.0 11 93
r 1.0046 1 3 tcp 190 ------- 2 1.0 4.1 20 89
+ 1.0046 3 4 tcp 190 ------- 2 1.0 4.1 20 89
r 1.0046 0 3 tcp 190 ------- 1 0.0 4.0 21 91
+ 1.0046 3 4 tcp 190 ------- 1 0.0 4.0 21 91
r 1.0052 3 0 ack 40 ------- 1 4.0 0.0 12 84
+ 1.0052 0 3 tcp 190 ------- 1 0.0 4.0 25 103
+ 1.0052 0 3 tcp 190 ------- 1 0.0 4.0 26 104
- 1.0052 2 3 tcp 190 ------- 3 2.0 4.2 16 101
- 1.0052 0 3 tcp 190 ------- 1 0.0 4.0 25 103
r 1.0152 3 4 tcp 190 ------- 3 2.0 4.2 10 60
+ 1.0152 4 3 ack 40 ------- 3 4.2 2.0 10 105
- 1.0152 4 3 ack 40 ------- 3 4.2 2.0 10 105
- 1.0158 3 4 tcp 190 ------- 3 2.0 4.2 12 66
r 1.0178 4 3 ack 40 ------- 1 4.0 0.0 14 96
+ 1.0178 3 0 ack 40 ------- 1 4.0 0.0 14 96
- 1.0178 3 0 ack 40 ------- 1 4.0 0.0 14 96
r 1.0198 1 3 tcp 190 ------- 2 1.0 4.1 21 94
+ 1.0198 3 4 tcp 190 ------- 2 1.0 4.1 21 94
r 1.0198 0 3 tcp 190 ------- 1 0.0 4.0 22 92
+ 1.0198 3 4 tcp 190 ------- 1 0.0 4.0 22 92
r 1.0204 3 2 ack 40 ------- 3 4.2 2.0 8 87
+ 1.0204 2 3 tcp 190 ------- 3 2.0 4.2 17 106
+ 1.0204 2 3 tcp 190 ------- 3 2.0 4.2 18 107
- 1.0204 2 3 tcp 190 ------- 3 2.0 4.2 17 106
- 1.0204 0 3 tcp 190 ------- 1 0.0 4.0 26 104
r 1.0304 3 4 tcp 190 ------- 2 1.0 4.1 13 62
+ 1.0304 4 3 ack 40 ------- 2 4.1 1.0 13 108
- 1.0304 4 3 ack 40 ------- 2 4.1 1.0 13 108
- 1.031 3 4 tcp 190 ------- 3 2.0 4.2 13 68
r 1.033 4 3 ack 40 ------- 3 4.2 2.0 9 99
+ 1.033 3 2 ack 40 ------- 3 4.2 2.0 9 99
- 1.033 3 2 ack 40 ------- 3 4.2 2.0 9 99
r 1.035 1 3 tcp 190 ------- 2 1.0 4.1 22 95
+ 1.035 3 4 tcp 190 ------- 2 1.0 4.1 22 95
r 1.035 0 3 tcp 190 ------- 1 0.0 4.0 23 97
+ 1.035 3 4 tcp 190 ------- 1 0.0 4.0 23 97
r 1.0356 3 0 ack 40 ------- 1 4.0 0.0 13 90
+ 1.0356 0 3 tcp 190 ------- 1 0.0 4.0 27 109
+ 1.0356 0 3 tcp 190 ------- 1 0.0 4.0 28 110
- 1.0356 2 3 tcp 190 ------- 3 2.0 4.2 18 107
- 1.0356 0 3 tcp 190 ------- 1 0.0 4.0 27 109
r 1.0456 3 4 tcp 190 ------- 3 2.0 4.2 11 65
+ 1.0456 4 3 ack 40 ------- 3 4.2 2.0 11 111
- 1.0456 4 3 ack 40 ------- 3 4.2 2.0 11 111
- 1.0462 3 4 tcp 190 ------- 3 2.0 4.2 14 69
r 1.0482 4 3 ack 40 ------- 2 4.1 1.0 12 102
+ 1.0482 3 1 ack 40 ------- 2 4.1 1.0 12 102
- 1.0482 3 1 ack 40 ------- 2 4.1 1.0 12 102
r 1.0502 2 3 tcp 190 ------- 3 2.0 4.2 15 100
+ 1.0502 3 4 tcp 190 ------- 3 2.0 4.2 15 100
r 1.0502 0 3 tcp 190 ------- 1 0.0 4.0 24 98
+ 1.0502 3 4 tcp 190 ------- 1 0.0 4.0 24 98
r 1.0508 3 1 ack 40 ------- 2 4.1 1.0 11 93
+ 1.0508 1 3 tcp 190 ------- 2 1.0 4.1 23 112
- 1.0508 1 3 tcp 190 ------- 2 1.0 4.1 23 112
+ 1.0508 1 3 tcp 190 ------- 2 1.0 4.1 24 113
- 1.0508 0 3 tcp 190 ------- 1 0.0 4.0 28 110
r 1.0608 3 4 tcp 190 ------- 2 1.0 4.1 14 63
+ 1.0608 4 3 ack 40 ------- 2 4.1 1.0 14 114
- 1.0608 4 3 ack 40 ------- 2 4.1 1.0 14 114
- 1.0614 3 4 tcp 190 ------- 1 0.0 4.0 15 73
r 1.0634 4 3 ack 40 ------- 3 4.2 2.0 10 105
+ 1.0634 3 2 ack 40 ------- 3 4.2 2.0 10 105
- 1.0634 3 2 ack 40 ------- 3 4.2 2.0 10 105
r 1.0654 2 3 tcp 190 ------- 3 2.0 4.2 16 101
+ 1.0654 3 4 tcp 190 ------- 3 2.0 4.2 16 101
r 1.0654 0 3 tcp 190 ------- 1 0.0 4.0 25 103
+ 1.0654 3 4 tcp 190 ------- 1 0.0 4.0 25 103
d 1.0654 3 4 tcp 190 ------- 1 0.0 4.0 25 103
r 1.066 3 0 ack 40 ------- 1 4.0 0.0 14 96
+ 1.066 0 3 tcp 190 ------- 1 0.0 4.0 29 115
+ 1.066 0 3 tcp 190 ------- 1 0.0 4.0 30 116
- 1.066 1 3 tcp 190 ------- 2 1.0 4.1 24 113
- 1.066 0 3 tcp 190 ------- 1 0.0 4.0 29 115
r 1.076 3 4 tcp 190 ------- 3 2.0 4.2 12 66
+ 1.076 4 3 ack 40 ------- 3 4.2 2.0 12 117
- 1.076 4 3 ack 40 ------- 3 4.2 2.0 12 117
- 1.0766 3 4 tcp 190 ------- 2 1.0 4.1 15 76
r 1.0786 4 3 ack 40 ------- 2 4.1 1.0 13 108
+ 1.0786 3 1 ack 40 ------- 2 4.1 1.0 13 108
- 1.0786 3 1 ack 40 ------- 2 4.1 1.0 13 108
r 1.0806 2 3 tcp 190 ------- 3 2.0 4.2 17 106
+ 1.0806 3 4 tcp 190 ------- 3 2.0 4.2 17 106
r 1.0806 0 3 tcp 190 ------- 1 0.0 4.0 26 104
+ 1.0806 3 4 tcp 190 ------- 1 0.0 4.0 26 104
d 1.0806 3 4 tcp 190 ------- 1 0.0 4.0 26 104
r 1.0812 3 2 ack 40 ------- 3 4.2 2.0 9 99
+ 1.0812 2 3 tcp 190 ------- 3 2.0 4.2 19 118
- 1.0812 2 3 tcp 190 ------- 3 2.0 4.2 19 118
+ 1.0812 2 3 tcp 190 ------- 3 2.0 4.2 20 119
- 1.0812 0 3 tcp 190 ------- 1 0.0 4.0 30 116
r 1.0912 3 4 tcp 190 ------- 3 2.0 4.2 13 68
+ 1.0912 4 3 ack 40 ------- 3 4.2 2.0 13 120
- 1.0912 4 3 ack 40 ------- 3 4.2 2.0 13 120
- 1.0918 3 4 tcp 190 ------- 1 0.0 4.0 16 74
r 1.0938 4 3 ack 40 ------- 3 4.2 2.0 11 111
+ 1.0938 3 2 ack 40 ------- 3 4.2 2.0 11 111
- 1.0938 3 2 ack 40 ------- 3 4.2 2.0 11 111
r 1.0958 2 3 tcp 190 ------- 3 2.0 4.2 18 107
+ 1.0958 3 4 tcp 190 ------- 3 2.0 4.2 18 107
r 1.0958 0 3 tcp 190 ------- 1 0.0 4.0 27 109
+ 1.0958 3 4 tcp 190 ------- 1 0.0 4.0 27 109
d 1.0958 3 4 tcp 190 ------- 1 0.0 4.0 27 109
r 1.0964 3 1 ack 40 ------- 2 4.1 1.0 12 102
+ 1.0964 1 3 tcp 190 ------- 2 1.0 4.1 25 121
- 1.0964 1 3 tcp 190 ------- 2 1.0 4.1 25 121
+ 1.0964 1 3 tcp 190 ------- 2 1.0 4.1 26 122
- 1.0964 2 3 tcp 190 ------- 3 2.0 4.2 20 119
r 1.1064 3 4 tcp 190 ------- 3 2.0 4.2 14 69
+ 1.1064 4 3 ack 40 ------- 3 4.2 2.0 14 123
- 1.1064 4 3 ack 40 ------- 3 4.2 2.0 14 123
- 1.107 3 4 tcp 190 ------- 2 1.0 4.1 16 77
r 1.109 4 3 ack 40 ------- 2 4.1 1.0 14 114
+ 1.109 3 1 ack 40 ------- 2 4.1 1.0 14 114
- 1.109 3 1 ack 40 ------- 2 4.1 1.0 14 114
r 1.111 1 3 tcp 190 ------- 2 1.0 4.1 23 112
+ 1.111 3 4 tcp 190 ------- 2 1.0 4.1 23 112
r 1.111 0 3 tcp 190 ------- 1 0.0 4.0 28 110
+ 1.111 3 4 tcp 190 ------- 1 0.0 4.0 28 110
d 1.111 3 4 tcp 190 ------- 1 0.0 4.0 28 110
r 1.1116 3 2 ack 40 ------- 3 4.2 2.0 10 105
+ 1.1116 2 3 tcp 190 ------- 3 2.0 4.2 21 124
+ 1.1116 2 3 tcp 190 ------- 3 2.0 4.2 22 125
- 1.1116 1 3 tcp 190 ------- 2 1.0 4.1 26 122
- 1.1116 2 3 tcp 190 ------- 3 2.0 4.2 21 124
r 1.1216 3 4 tcp 190 ------- 1 0.0 4.0 15 73
+ 1.1216 4 3 ack 40 ------- 1 4.0 0.0 15 126
- 1.1216 4 3 ack 40 ------- 1 4.0 0.0 15 126
- 1.1222 3 4 tcp 190 ------- 1 0.0 4.0 17 79
r 1.1242 4 3 ack 40 ------- 3 4.2 2.0 12 117
+ 1.1242 3 2 ack 40 ------- 3 4.2 2.0 12 117
- 1.1242 3 2 ack 40 ------- 3 4.2 2.0 12 117
r 1.1262 1 3 tcp 190 ------- 2 1.0 4.1 24 113
+ 1.1262 3 4 tcp 190 ------- 2 1.0 4.1 24 113
r 1.1262 0 3 tcp 190 ------- 1 0.0 4.0 29 115
+ 1.1262 3 4 tcp 190 ------- 1 0.0 4.0 29 115
d 1.1262 3 4 tcp 190 ------- 1 0.0 4.0 29 115
r 1.1268 3 1 ack 40 ------- 2 4.1 1.0 13 108
+ 1.1268 1 3 tcp 190 ------- 2 1.0 4.1 27 127
+ 1.1268 1 3 tcp 190 ------- 2 1.0 4.1 28 128
- 1.1268 1 3 tcp 190 ------- 2 1.0 4.1 27 127
- 1.1268 2 3 tcp 190 ------- 3 2.0 4.2 22 125
r 1.1368 3 4 tcp 190 ------- 2 1.0 4.1 15 76
+ 1.1368 4 3 ack 40 ------- 2 4.1 1.0 15 129
- 1.1368 4 3 ack 40 ------- 2 4.1 1.0 15 129
- 1.1374 3 4 tcp 190 ------- 2 1.0 4.1 17 82
r 1.1394 4 3 ack 40 ------- 3 4.2 2.0 13 120
+ 1.1394 3 2 ack 40 ------- 3 4.2 2.0 13 120
- 1.1394 3 2 ack 40 ------- 3 4.2 2.0 13 120
r 1.1414 2 3 tcp 190 ------- 3 2.0 4.2 19 118